<?xml version="1.0"?>
<VTKFile type="UnstructuredGrid"  version="0.1"  >
<UnstructuredGrid>
<Piece  NumberOfPoints="6561" NumberOfCells="6400">
<Points>
<DataArray  type="Float64"  NumberOfComponents="3"  format="ascii">0 0 0  0.0125 0 0  0.025 0 0  0.0375 0 0  0.05 0 0  0.0625 0 0  0.075 0 0  0.08749999999999999 0 0  0.1 0 0  0.1125 0 0  0.125 0 0  0.1375 0 0  0.15 0 0  0.1625 0 0  0.175 0 0  0.1875 0 0  0.2 0 0  0.2125 0 0  0.225 0 0  0.2375 0 0  0.25 0 0  0.2625 0 0  0.275 0 0  0.2875 0 0  0.3 0 0  0.3125 0 0  0.325 0 0  0.3375 0 0  0.35 0 0  0.3625 0 0  0.375 0 0  0.3875 0 0  0.4 0 0  0.4125 0 0  0.425 0 0  0.4375 0 0  0.45 0 0  0.4625 0 0  0.475 0 0  0.4875 0 0  0.5 0 0  0.5125 0 0  0.525 0 0  0.5375 0 0  0.55 0 0  0.5625 0 0  0.575 0 0  0.5875 0 0  0.6 0 0  0.6125 0 0  0.625 0 0  0.6375 0 0  0.65 0 0  0.6625 0 0  0.675 0 0  0.6875 0 0  0.7 0 0  0.7125 0 0  0.725 0 0  0.7375 0 0  0.75 0 0  0.7625 0 0  0.775 0 0  0.7875 0 0  0.8 0 0  0.8125 0 0  0.825 0 0  0.8375 0 0  0.85 0 0  0.8625 0 0  0.875 0 0  0.8875 0 0  0.9 0 0  0.9125 0 0  0.925 0 0  0.9375 0 0  0.95 0 0  0.9625 0 0  0.975 0 0  0.9875 0 0  1 0 0  0 0.0125 0  0.0125 0.0125 0  0.025 0.0125 0  0.0375 0.0125 0  0.05 0.0125 0  0.0625 0.0125 0  0.075 0.0125 0  0.08749999999999999 0.0125 0  0.1 0.0125 0  0.1125 0.0125 0  0.125 0.0125 0  0.1375 0.0125 0  0.15 0.0125 0  0.1625 0.0125 0  0.175 0.0125 0  0.1875 0.0125 0  0.2 0.0125 0  0.2125 0.0125 0  0.225 0.0125 0  0.2375 0.0125 0  0.25 0.0125 0  0.2625 0.0125 0  0.275 0.0125 0  0.2875 0.0125 0  0.3 0.0125 0  0.3125 0.0125 0  0.325 0.0125 0  0.3375 0.0125 0  0.35 0.0125 0  0.3625 0.0125 0  0.375 0.0125 0  0.3875 0.0125 0  0.4 0.0125 0  0.4125 0.0125 0  0.425 0.0125 0  0.4375 0.0125 0  0.45 0.0125 0  0.4625 0.0125 0  0.475 0.0125 0  0.4875 0.0125 0  0.5 0.0125 0  0.5125 0.0125 0  0.525 0.0125 0  0.5375 0.0125 0  0.55 0.0125 0  0.5625 0.0125 0  0.575 0.0125 0  0.5875 0.0125 0  0.6 0.0125 0  0.6125 0.0125 0  0.625 0.0125 0  0.6375 0.0125 0  0.65 0.0125 0  0.6625 0.0125 0  0.675 0.0125 0  0.6875 0.0125 0  0.7 0.0125 0  0.7125 0.0125 0  0.725 0.0125 0  0.7375 0.0125 0  0.75 0.0125 0  0.7625 0.0125 0  0.775 0.0125 0  0.7875 0.0125 0  0.8 0.0125 0  0.8125 0.0125 0  0.825 0.0125 0  0.8375 0.0125 0  0.85 0.0125 0  0.8625 0.0125 0  0.875 0.0125 0  0.8875 0.0125 0  0.9 0.0125 0  0.9125 0.0125 0  0.925 0.0125 0  0.9375 0.0125 0  0.95 0.0125 0  0.9625 0.0125 0  0.975 0.0125 0  0.9875 0.0125 0  1 0.0125 0  0 0.025 0  0.0125 0.025 0  0.025 0.025 0  0.0375 0.025 0  0.05 0.025 0  0.0625 0.025 0  0.075 0.025 0  0.08749999999999999 0.025 0  0.1 0.025 0  0.1125 0.025 0  0.125 0.025 0  0.1375 0.025 0  0.15 0.025 0  0.1625 0.025 0  0.175 0.025 0  0.1875 0.025 0  0.2 0.025 0  0.2125 0.025 0  0.225 0.025 0  0.2375 0.025 0  0.25 0.025 0  0.2625 0.025 0  0.275 0.025 0  0.2875 0.025 0  0.3 0.025 0  0.3125 0.025 0  0.325 0.025 0  0.3375 0.025 0  0.35 0.025 0  0.3625 0.025 0  0.375 0.025 0  0.3875 0.025 0  0.4 0.025 0  0.4125 0.025 0  0.425 0.025 0  0.4375 0.025 0  0.45 0.025 0  0.4625 0.025 0  0.475 0.025 0  0.4875 0.025 0  0.5 0.025 0  0.5125 0.025 0  0.525 0.025 0  0.5375 0.025 0  0.55 0.025 0  0.5625 0.025 0  0.575 0.025 0  0.5875 0.025 0  0.6 0.025 0  0.6125 0.025 0  0.625 0.025 0  0.6375 0.025 0  0.65 0.025 0  0.6625 0.025 0  0.675 0.025 0  0.6875 0.025 0  0.7 0.025 0  0.7125 0.025 0  0.725 0.025 0  0.7375 0.025 0  0.75 0.025 0  0.7625 0.025 0  0.775 0.025 0  0.7875 0.025 0  0.8 0.025 0  0.8125 0.025 0  0.825 0.025 0  0.8375 0.025 0  0.85 0.025 0  0.8625 0.025 0  0.875 0.025 0  0.8875 0.025 0  0.9 0.025 0  0.9125 0.025 0  0.925 0.025 0  0.9375 0.025 0  0.95 0.025 0  0.9625 0.025 0  0.975 0.025 0  0.9875 0.025 0  1 0.025 0  0 0.0375 0  0.0125 0.0375 0  0.025 0.0375 0  0.0375 0.0375 0  0.05 0.0375 0  0.0625 0.0375 0  0.075 0.0375 0  0.08749999999999999 0.0375 0  0.1 0.0375 0  0.1125 0.0375 0  0.125 0.0375 0  0.1375 0.0375 0  0.15 0.0375 0  0.1625 0.0375 0  0.175 0.0375 0  0.1875 0.0375 0  0.2 0.0375 0  0.2125 0.0375 0  0.225 0.0375 0  0.2375 0.0375 0  0.25 0.0375 0  0.2625 0.0375 0  0.275 0.0375 0  0.2875 0.0375 0  0.3 0.0375 0  0.3125 0.0375 0  0.325 0.0375 0  0.3375 0.0375 0  0.35 0.0375 0  0.3625 0.0375 0  0.375 0.0375 0  0.3875 0.0375 0  0.4 0.0375 0  0.4125 0.0375 0  0.425 0.0375 0  0.4375 0.0375 0  0.45 0.0375 0  0.4625 0.0375 0  0.475 0.0375 0  0.4875 0.0375 0  0.5 0.0375 0  0.5125 0.0375 0  0.525 0.0375 0  0.5375 0.0375 0  0.55 0.0375 0  0.5625 0.0375 0  0.575 0.0375 0  0.5875 0.0375 0  0.6 0.0375 0  0.6125 0.0375 0  0.625 0.0375 0  0.6375 0.0375 0  0.65 0.0375 0  0.6625 0.0375 0  0.675 0.0375 0  0.6875 0.0375 0  0.7 0.0375 0  0.7125 0.0375 0  0.725 0.0375 0  0.7375 0.0375 0  0.75 0.0375 0  0.7625 0.0375 0  0.775 0.0375 0  0.7875 0.0375 0  0.8 0.0375 0  0.8125 0.0375 0  0.825 0.0375 0  0.8375 0.0375 0  0.85 0.0375 0  0.8625 0.0375 0  0.875 0.0375 0  0.8875 0.0375 0  0.9 0.0375 0  0.9125 0.0375 0  0.925 0.0375 0  0.9375 0.0375 0  0.95 0.0375 0  0.9625 0.0375 0  0.975 0.0375 0  0.9875 0.0375 0  1 0.0375 0  0 0.05 0  0.0125 0.05 0  0.025 0.05 0  0.0375 0.05 0  0.05 0.05 0  0.0625 0.05 0  0.075 0.05 0  0.08749999999999999 0.05 0  0.1 0.05 0  0.1125 0.05 0  0.125 0.05 0  0.1375 0.05 0  0.15 0.05 0  0.1625 0.05 0  0.175 0.05 0  0.1875 0.05 0  0.2 0.05 0  0.2125 0.05 0  0.225 0.05 0  0.2375 0.05 0  0.25 0.05 0  0.2625 0.05 0  0.275 0.05 0  0.2875 0.05 0  0.3 0.05 0  0.3125 0.05 0  0.325 0.05 0  0.3375 0.05 0  0.35 0.05 0  0.3625 0.05 0  0.375 0.05 0  0.3875 0.05 0  0.4 0.05 0  0.4125 0.05 0  0.425 0.05 0  0.4375 0.05 0  0.45 0.05 0  0.4625 0.05 0  0.475 0.05 0  0.4875 0.05 0  0.5 0.05 0  0.5125 0.05 0  0.525 0.05 0  0.5375 0.05 0  0.55 0.05 0  0.5625 0.05 0  0.575 0.05 0  0.5875 0.05 0  0.6 0.05 0  0.6125 0.05 0  0.625 0.05 0  0.6375 0.05 0  0.65 0.05 0  0.6625 0.05 0  0.675 0.05 0  0.6875 0.05 0  0.7 0.05 0  0.7125 0.05 0  0.725 0.05 0  0.7375 0.05 0  0.75 0.05 0  0.7625 0.05 0  0.775 0.05 0  0.7875 0.05 0  0.8 0.05 0  0.8125 0.05 0  0.825 0.05 0  0.8375 0.05 0  0.85 0.05 0  0.8625 0.05 0  0.875 0.05 0  0.8875 0.05 0  0.9 0.05 0  0.9125 0.05 0  0.925 0.05 0  0.9375 0.05 0  0.95 0.05 0  0.9625 0.05 0  0.975 0.05 0  0.9875 0.05 0  1 0.05 0  0 0.0625 0  0.0125 0.0625 0  0.025 0.0625 0  0.0375 0.0625 0  0.05 0.0625 0  0.0625 0.0625 0  0.075 0.0625 0  0.08749999999999999 0.0625 0  0.1 0.0625 0  0.1125 0.0625 0  0.125 0.0625 0  0.1375 0.0625 0  0.15 0.0625 0  0.1625 0.0625 0  0.175 0.0625 0  0.1875 0.0625 0  0.2 0.0625 0  0.2125 0.0625 0  0.225 0.0625 0  0.2375 0.0625 0  0.25 0.0625 0  0.2625 0.0625 0  0.275 0.0625 0  0.2875 0.0625 0  0.3 0.0625 0  0.3125 0.0625 0  0.325 0.0625 0  0.3375 0.0625 0  0.35 0.0625 0  0.3625 0.0625 0  0.375 0.0625 0  0.3875 0.0625 0  0.4 0.0625 0  0.4125 0.0625 0  0.425 0.0625 0  0.4375 0.0625 0  0.45 0.0625 0  0.4625 0.0625 0  0.475 0.0625 0  0.4875 0.0625 0  0.5 0.0625 0  0.5125 0.0625 0  0.525 0.0625 0  0.5375 0.0625 0  0.55 0.0625 0  0.5625 0.0625 0  0.575 0.0625 0  0.5875 0.0625 0  0.6 0.0625 0  0.6125 0.0625 0  0.625 0.0625 0  0.6375 0.0625 0  0.65 0.0625 0  0.6625 0.0625 0  0.675 0.0625 0  0.6875 0.0625 0  0.7 0.0625 0  0.7125 0.0625 0  0.725 0.0625 0  0.7375 0.0625 0  0.75 0.0625 0  0.7625 0.0625 0  0.775 0.0625 0  0.7875 0.0625 0  0.8 0.0625 0  0.8125 0.0625 0  0.825 0.0625 0  0.8375 0.0625 0  0.85 0.0625 0  0.8625 0.0625 0  0.875 0.0625 0  0.8875 0.0625 0  0.9 0.0625 0  0.9125 0.0625 0  0.925 0.0625 0  0.9375 0.0625 0  0.95 0.0625 0  0.9625 0.0625 0  0.975 0.0625 0  0.9875 0.0625 0  1 0.0625 0  0 0.075 0  0.0125 0.075 0  0.025 0.075 0  0.0375 0.075 0  0.05 0.075 0  0.0625 0.075 0  0.075 0.075 0  0.08749999999999999 0.075 0  0.1 0.075 0  0.1125 0.075 0  0.125 0.075 0  0.1375 0.075 0  0.15 0.075 0  0.1625 0.075 0  0.175 0.075 0  0.1875 0.075 0  0.2 0.075 0  0.2125 0.075 0  0.225 0.075 0  0.2375 0.075 0  0.25 0.075 0  0.2625 0.075 0  0.275 0.075 0  0.2875 0.075 0  0.3 0.075 0  0.3125 0.075 0  0.325 0.075 0  0.3375 0.075 0  0.35 0.075 0  0.3625 0.075 0  0.375 0.075 0  0.3875 0.075 0  0.4 0.075 0  0.4125 0.075 0  0.425 0.075 0  0.4375 0.075 0  0.45 0.075 0  0.4625 0.075 0  0.475 0.075 0  0.4875 0.075 0  0.5 0.075 0  0.5125 0.075 0  0.525 0.075 0  0.5375 0.075 0  0.55 0.075 0  0.5625 0.075 0  0.575 0.075 0  0.5875 0.075 0  0.6 0.075 0  0.6125 0.075 0  0.625 0.075 0  0.6375 0.075 0  0.65 0.075 0  0.6625 0.075 0  0.675 0.075 0  0.6875 0.075 0  0.7 0.075 0  0.7125 0.075 0  0.725 0.075 0  0.7375 0.075 0  0.75 0.075 0  0.7625 0.075 0  0.775 0.075 0  0.7875 0.075 0  0.8 0.075 0  0.8125 0.075 0  0.825 0.075 0  0.8375 0.075 0  0.85 0.075 0  0.8625 0.075 0  0.875 0.075 0  0.8875 0.075 0  0.9 0.075 0  0.9125 0.075 0  0.925 0.075 0  0.9375 0.075 0  0.95 0.075 0  0.9625 0.075 0  0.975 0.075 0  0.9875 0.075 0  1 0.075 0  0 0.08749999999999999 0  0.0125 0.08749999999999999 0  0.025 0.08749999999999999 0  0.0375 0.08749999999999999 0  0.05 0.08749999999999999 0  0.0625 0.08749999999999999 0  0.075 0.08749999999999999 0  0.08749999999999999 0.08749999999999999 0  0.1 0.08749999999999999 0  0.1125 0.08749999999999999 0  0.125 0.08749999999999999 0  0.1375 0.08749999999999999 0  0.15 0.08749999999999999 0  0.1625 0.08749999999999999 0  0.175 0.08749999999999999 0  0.1875 0.08749999999999999 0  0.2 0.08749999999999999 0  0.2125 0.08749999999999999 0  0.225 0.08749999999999999 0  0.2375 0.08749999999999999 0  0.25 0.08749999999999999 0  0.2625 0.08749999999999999 0  0.275 0.08749999999999999 0  0.2875 0.08749999999999999 0  0.3 0.08749999999999999 0  0.3125 0.08749999999999999 0  0.325 0.08749999999999999 0  0.3375 0.08749999999999999 0  0.35 0.08749999999999999 0  0.3625 0.08749999999999999 0  0.375 0.08749999999999999 0  0.3875 0.08749999999999999 0  0.4 0.08749999999999999 0  0.4125 0.08749999999999999 0  0.425 0.08749999999999999 0  0.4375 0.08749999999999999 0  0.45 0.08749999999999999 0  0.4625 0.08749999999999999 0  0.475 0.08749999999999999 0  0.4875 0.08749999999999999 0  0.5 0.08749999999999999 0  0.5125 0.08749999999999999 0  0.525 0.08749999999999999 0  0.5375 0.08749999999999999 0  0.55 0.08749999999999999 0
[...]
<CellData  Scalars="f_136116"> 
<DataArray  type="Float64"  Name="f_136116"  format="ascii">2.1749999999999998e+00   2.1749999999999998e+00   2.1749999999999998e+00   2.1749999999999998e+00   2.1749999999999998e+00   1.2500000000000001e-02   1.2500000000000001e-02   1.2500000000000001e-02   1.2500000000000001e-02   1.2500000000000001e-02   1.2500000000000001e-02   1.2500000000000001e-02   1.2500000000000001e-02   1.2500000000000001e-02   1.2500000000000001e-02   1.2500000000000001e-02   2.1749999999999998e+00   2.1749999999999998e+00   2.1749999999999998e+00   2.1749999999999998e+00   2.1749999999999998e+00   2.1749999999999998e+00   2.1749999999999998e+00   2.1749999999999998e+00   2.1749999999999998e+00   2.1749999999999998e+00   2.1749999999999998e+00   2.1749999999999998e+00   1.2500000000000001e-02   1.2500000000000001e-02   1.2500000000000001e-02   1.2500000000000001e-02   1.2500000000000001e-02   1.2500000000000001e-02   1.2500000000000001e-02   1.2500000000000001e-02   1.2500000000000001e-02   1.2500000000000001e-02   1.2500000000000001e-02   1.2500000000000001e-02   1.2500000000000001e-02   1.2500000000000001e-02   1.2500000000000001e-02   1.2500000000000001e-02   1.2500000000000001e-02   1.2500000000000001e-02   2.1749999999999998e+00   2.1749999999999998e+00   2.1749999999999998e+00   2.1749999999999998e+00   2.1749999999999998e+00   2.1749999999999998e+00   1.2500000000000001e-02   1.2500000000000001e-02   1.2500000000000001e-02   1.2500000000000001e-02   1.2500000000000001e-02   1.2500000000000001e-02   1.2500000000000001e-02   1.2500000000000001e-02   1.2500000000000001e-02   1.2500000000000001e-02   1.2500000000000001e-02   1.2500000000000001e-02   1.2500000000000001e-02   1.2500000000000001e-02   1.2500000000000001e-02   1.2500000000000001e-02   1.2500000000000001e-02   1.2500000000000001e-02   1.2500000000000001e-02   1.2500000000000001e-02   1.2500000000000001e-02   1.2500000000000001e-02   1.2500000000000001e-02   1.2500000000000001e-02   1.2500000000000001e-02   1.2500000000000001e-02   1.2500000000000001e-02   1.2500000000000001e-02   2.1749999999999998e+00   2.1749999999999998e+00   2.1749999999999998e+00   2.1749999999999998e+00   2.1749999999999998e+00   1.2500000000000001e-02   1.2500000000000001e-02   1.2500000000000001e-02   1.2500000000000001e-02   1.2500000000000001e-02   1.2500000000000001e-02   1.2500000000000001e-02   1.2500000000000001e-02   1.2500000000000001e-02   1.2500000000000001e-02   1.2500000000000001e-02   2.1749999999999998e+00   2.1749999999999998e+00   2.1749999999999998e+00   2.1749999999999998e+00   2.1749999999999998e+00   2.1749999999999998e+00   2.1749999999999998e+00   2.1749999999999998e+00   2.1749999999999998e+00   2.1749999999999998e+00   2.1749999999999998e+00   2.1749999999999998e+00   1.2500000000000001e-02   1.2500000000000001e-02   1.2500000000000001e-02   1.2500000000000001e-02   1.2500000000000001e-02   1.2500000000000001e-02   1.2500000000000001e-02   1.2500000000000001e-02   1.2500000000000001e-02   1.2500000000000001e-02   1.2500000000000001e-02   1.2500000000000001e-02   1.2500000000000001e-02   1.2500000000000001e-02   1.2500000000000001e-02   1.2500000000000001e-02   1.2500000000000001e-02   1.2500000000000001e-02   2.1749999999999998e+00   2.1749999999999998e+00   2.1749999999999998e+00   2.1749999999999998e+00   2.1749999999999998e+00   2.1749999999999998e+00   1.2500000000000001e-02   1.2500000000000001e-02   1.2500000000000001e-02   1.2500000000000001e-02   1.2500000000000001e-02   1.2500000000000001e-02   1.2500000000000001e-02   1.2500000000000001e-02   1.2500000000000001e-02   1.2500000000000001e-02   1.2500000000000001e-02   1.2500000000000001e-02   1.2500000000000001e-02   1.2500000000000001e-02   1.2500000000000001e-02   1.2500000000000001e-02   1.2500000000000001e-02   1.2500000000000001e-02   1.2500000000000001e-02   1.2500000000000001e-02   1.2500000000000001e-02   1.2500000000000001e-02   1.2500000000000001e-02   1.2500000000000001e-02   1.2500000000000001e-02   1.2500000000000001e-02   1.2500000000000001e-02   1.2500000000000001e-02   2.1749999999999998e+00   2.1749999999999998e+00   2.1749999999999998e+00   2.1749999999999998e+00   2.1749999999999998e+00   1.2500000000000001e-02   1.2500000000000001e-02   1.2500000000000001e-02   1.2500000000000001e-02   1.2500000000000001e-02   1.2500000000000001e-02   1.2500000000000001e-02   1.2500000000000001e-02   1.2500000000000001e-02   1.2500000000000001e-02   1.2500000000000001e-02   2.1749999999999998e+00   2.1749999999999998e+00   2.1749999999999998e+00   2.1749999999999998e+00   2.1749999999999998e+00   2.1749999999999998e+00   2.1749999999999998e+00   2.1749999999999998e+00   2.1749999999999998e+00   2.1749999999999998e+00   2.1749999999999998e+00   2.1749999999999998e+00   1.2500000000000001e-02   1.2500000000000001e-02   1.2500000000000001e-02   1.2500000000000001e-02   1.2500000000000001e-02   1.2500000000000001e-02   1.2500000000000001e-02   1.2500000000000001e-02   1.2500000000000001e-02   1.2500000000000001e-02   1.2500000000000001e-02   1.2500000000000001e-02   1.2500000000000001e-02   1.2500000000000001e-02   1.2500000000000001e-02   1.2500000000000001e-02   1.2500000000000001e-02   1.2500000000000001e-02   2.1749999999999998e+00   2.1749999999999998e+00   2.1749999999999998e+00   2.1749999999999998e+00   2.1749999999999998e+00   2.1749999999999998e+00   1.2500000000000001e-02   1.2500000000000001e-02   1.2500000000000001e-02   1.2500000000000001e-02   1.2500000000000001e-02   1.2500000000000001e-02   1.2500000000000001e-02   1.2500000000000001e-02   1.2500000000000001e-02   1.2500000000000001e-02   1.2500000000000001e-02   1.2500000000000001e-02   1.2500000000000001e-02   1.2500000000000001e-02   1.2500000000000001e-02   1.2500000000000001e-02   1.2500000000000001e-02   1.2500000000000001e-02   1.2500000000000001e-02   1.2500000000000001e-02   1.2500000000000001e-02   1.2500000000000001e-02   1.2500000000000001e-02   1.2500000000000001e-02   1.2500000000000001e-02   1.2500000000000001e-02   1.2500000000000001e-02   1.2500000000000001e-02   2.1749999999999998e+00   2.1749999999999998e+00   2.1749999999999998e+00   2.1749999999999998e+00   2.1749999999999998e+00   1.2500000000000001e-02   1.2500000000000001e-02   1.2500000000000001e-02   1.2500000000000001e-02   1.2500000000000001e-02   1.2500000000000001e-02   1.2500000000000001e-02   1.2500000000000001e-02   1.2500000000000001e-02   1.2500000000000001e-02   1.2500000000000001e-02   2.1749999999999998e+00   2.1749999999999998e+00   2.1749999999999998e+00   2.1749999999999998e+00   2.1749999999999998e+00   2.1749999999999998e+00   2.1749999999999998e+00   2.1749999999999998e+00   2.1749999999999998e+00   2.1749999999999998e+00   2.1749999999999998e+00   2.1749999999999998e+00   1.2500000000000001e-02   1.2500000000000001e-02   1.2500000000000001e-02   1.2500000000000001e-02   1.2500000000000001e-02   1.2500000000000001e-02   1.2500000000000001e-02   1.2500000000000001e-02   1.2500000000000001e-02   1.2500000000000001e-02   1.2500000000000001e-02   1.2500000000000001e-02   1.2500000000000001e-02   1.2500000000000001e-02   1.2500000000000001e-02   1.2500000000000001e-02   1.2500000000000001e-02   1.2500000000000001e-02   2.1749999999999998e+00   2.1749999999999998e+00   2.1749999999999998e+00   2.1749999999999998e+00   2.1749999999999998e+00   2.1749999999999998e+00   1.2500000000000001e-02   1.2500000000000001e-02   1.2500000000000001e-02   1.2500000000000001e-02   1.2500000000000001e-02   1.2500000000000001e-02   1.2500000000000001e-02   1.2500000000000001e-02   1.2500000000000001e-02   1.2500000000000001e-02   1.2500000000000001e-02   1.2500000000000001e-02   1.2500000000000001e-02   1.2500000000000001e-02   1.2500000000000001e-02   1.2500000000000001e-02   1.2500000000000001e-02   1.2500000000000001e-02   1.2500000000000001e-02   1.2500000000000001e-02   1.2500000000000001e-02   1.2500000000000001e-02   1.2500000000000001e-02   1.2500000000000001e-02   1.2500000000000001e-02   1.2500000000000001e-02   1.2500000000000001e-02   1.2500000000000001e-02   2.1749999999999998e+00   2.1749999999999998e+00   2.1749999999999998e+00   2.1749999999999998e+00   2.1749999999999998e+00   1.2500000000000001e-02   1.2500000000000001e-02   1.2500000000000001e-02   1.2500000000000001e-02   1.2500000000000001e-02   1.2500000000000001e-02   1.2500000000000001e-02   1.2500000000000001e-02   1.2500000000000001e-02   1.2500000000000001e-02   1.2500000000000001e-02   2.1749999999999998e+00   2.1749999999999998e+00   2.1749999999999998e+00   2.1749999999999998e+00   2.1749999999999998e+00   2.1749999999999998e+00   2.1749999999999998e+00   2.1749999999999998e+00   2.1749999999999998e+00   2.1749999999999998e+00   2.1749999999999998e+00   2.1749999999999998e+00   1.2500000000000001e-02   1.2500000000000001e-02   1.2500000000000001e-02   1.2500000000000001e-02   1.2500000000000001e-02   1.2500000000000001e-02   1.2500000000000001e-02   1.2500000000000001e-02   1.2500000000000001e-02   1.2500000000000001e-02   1.2500000000000001e-02   1.2500000000000001e-02   1.2500000000000001e-02   1.2500000000000001e-02   1.2500000000000001e-02   1.2500000000000001e-02   1.2500000000000001e-02   1.2500000000000001e-02   2.1749999999999998e+00   2.1749999999999998e+00   2.1749999999999998e+00   2.1749999999999998e+00   2.1749999999999998e+00   2.1749999999999998e+00   1.2500000000000001e-02   1.2500000000000001e-02   1.2500000000000001e-02   1.2500000000000001e-02   1.2500000000000001e-02   1.2500000000000001e-02   1.2500000000000001e-02   1.2500000000000001e-02   1.2500000000000001e-02   1.2500000000000001e-02   1.2500000000000001e-02   1.2500000000000001e-02   1.2500000000000001e-02   1.2500000000000001e-02   1.2500000000000001e-02   1.2500000000000001e-02   1.2500000000000001e-02   1.2500000000000001e-02   1.2500000000000001e-02   1.2500000000000001e-02   1.2500000000000001e-02   1.2500000000000001e-02   1.2500000000000001e-02   1.2500000000000001e-02   1.2500000000000001e-02   1.2500000000000001e-02   1.2500000000000001e-02   1.2500000000000001e-02   2.1749999999999998e+00   2.1749999999999998e+00   2.1749999999999998e+00   2.1749999999999998e+00   2.1749999999999998e+00   1.2500000000000001e-02   1.2500000000000001e-02   1.2500000000000001e-02   1.2500000000000001e-02   1.2500000000000001e-02   1.2500000000000001e-02   1.2500000000000001e-02   1.2500000000000001e-02   1.2500000000000001e-02   1.2500000000000001e-02   1.2500000000000001e-02   2.1749999999999998e+00   2.1749999999999998e+00   2.1749999999999998e+00   2.1749999999999998e+00   2.1749999999999998e+00   2.1749999999999998e+00   2.1749999999999998e+00   2.1749999999999998e+00   2.1749999999999998e+00   2.1749999999999998e+00   2.1749999999999998e+00   2.1749999999999998e+00   1.2500000000000001e-02   1.2500000000000001e-02   1.2500000000000001e-02   1.2500000000000001e-02   1.2500000000000001e-02   1.2500000000000001e-02   1.2500000000000001e-02   1.2500000000000001e-02   1.2500000000000001e-02   1.2500000000000001e-02   1.2500000000000001e-02   1.2500000000000001e-02   1.2500000000000001e-02   1.2500000000000001e-02   1.2500000000000001e-02   1.2500000000000001e-02   1.2500000000000001e-02   1.2500000000000001e-02   2.1749999999999998e+00   2.1749999999999998e+00   2.1749999999999998e+00   2.1749999999999998e+00   2.1749999999999998e+00   2.1749999999999998e+00   1.2500000000000001e-02   1.2500000000000001e-02   1.2500000000000001e-02   1.2500000000000001e-02   1.2500000000000001e-02   1.2500000000000001e-02   1.2500000000000001e-02   1.2500000000000001e-02   1.2500000000000001e-02   1.2500000000000001e-02   1.2500000000000001e-02   1.2500000000000001e-02   1.2500000000000001e-02   1.2500000000000001e-02   1.2500000000000001e-02   1.2500000000000001e-02   1.2500000000000001e-02   1.2500000000000001e-02   1.2500000000000001e-02   1.2500000000000001e-02   1.2500000000000001e-02   1.2500000000000001e-02   1.2500000000000001e-02   1.2500000000000001e-02   1.2500000000000001e-02   1.2500000000000001e-02   1.2500000000000001e-02   1.2500000000000001e-02   2.1749999999999998e+00   2.1749999999999998e+00   2.1749999999999998e+00   2.1749999999999998e+00   2.1749999999999998e+00   1.2500000000000001e-02   1.2500000000000001e-02   1.2500000000000001e-02   1.2500000000000001e-02   1.2500000000000001e-02   1.2500000000000001e-02   1.2500000000000001e-02   1.2500000000000001e-02   1.2500000000000001e-02   1.2500000000000001e-02   1.2500000000000001e-02   2.1749999999999998e+00   2.1749999999999998e+00   2.1749999999999998e+00   2.1749999999999998e+00   2.1749999999999998e+00   2.1749999999999998e+00   2.1749999999999998e+00   2.1749999999999998e+00   2.1749999999999998e+00   2.1749999999999998e+00   2.1749999999999998e+00   2.1749999999999998e+00   1.2500000000000001e-02   1.2500000000000001e-02   1.2500000000000001e-02   1.2500000000000001e-02   1.2500000000000001e-02   1.2500000000000001e-02   1.2500000000000001e-02   1.2500000000000001e-02   1.2500000000000001e-02   1.2500000000000001e-02   1.2500000000000001e-02   1.2500000000000001e-02   1.2500000000000001e-02   1.2500000000000001e-02   1.2500000000000001e-02   1.2500000000000001e-02   1.2500000000000001e-02   1.2500000000000001e-02   2.1749999999999998e+00   2.1749999999999998e+00   2.1749999999999998e+00   2.1749999999999998e+00   2.1749999999999998e+00   2.1749999999999998e+00   1.2500000000000001e-02   1.2500000000000001e-02   1.2500000000000001e-02   1.2500000000000001e-02   1.2500000000000001e-02   1.2500000000000001e-02   1.2500000000000001e-02   1.2500000000000001e-02   1.2500000000000001e-02   1.2500000000000001e-02   1.2500000000000001e-02   1.2500000000000001e-02   1.2500000000000001e-02   1.2500000000000001e-02   1.2500000000000001e-02   1.2500000000000001e-02   1.2500000000000001e-02   1.2500000000000001e-02   1.2500000000000001e-02   1.2500000000000001e-02   1.2500000000000001e-02   1.2500000000000001e-02   1.2500000000000001e-02   1.2500000000000001e-02   1.2500000000000001e-02   1.2500000000000001e-02   1.2500000000000001e-02   1.2500000000000001e-02   2.1749999999999998e+00   2.1749999999999998e+00   2.1749999999999998e+00   2.1749999999999998e+00   2.1749999999999998e+00   1.2500000000000001e-02   1.2500000000000001e-02   1.2500000000000001e-02   1.2500000000000001e-02   1.2500000000000001e-02   1.2500000000000001e-02   1.2500000000000001e-02   1.2500000000000001e-02   1.2500000000000001e-02   1.2500000000000001e-02   1.2500000000000001e-02   2.1749999999999998e+00   2.1749999999999998e+00   2.1749999999999998e+00   2.1749999999999998e+00   2.1749999999999998e+00   2.1749999999999998e+00   2.1749999999999998e+00   2.1749999999999998e+00   2.1749999999999998e+00   2.1749999999999998e+00   2.1749999999999998e+00   2.1749999999999998e+00   1.2500000000000001e-02   1.2500000000000001e-02   1.2500000000000001e-02   1.2500000000000001e-02   1.2500000000000001e-02   1.2500000000000001e-02   1.2500000000000001e-02   1.2500000000000001e-02   1.2500000000000001e-02   1.2500000000000001e-02   1.2500000000000001e-02   1.2500000000000001e-02   1.2500000000000001e-02   1.2500000000000001e-02   1.2500000000000001e-02   1.2500000000000001e-02   1.2500000000000001e-02   1.2500000000000001e-02   2.1749999999999998e+00   2.1749999999999998e+00   2.1749999999999998e+00   2.1749999999999998e+00   2.1749999999999998e+00   2.1749999999999998e+00   1.2500000000000001e-02   1.2500000000000001e-02   1.2500000000000001e-02   1.2500000000000001e-02   1.2500000000000001e-02   1.2500000000000001e-02   1.2500000000000001e-02   1.2500000000000001e-02   1.2500000000000001e-02   1.2500000000000001e-02   1.2500000000000001e-02   1.2500000000000001e-02   1.2500000000000001e-02   1.2500000000000001e-02   1.2500000000000001e-02   1.2500000000000001e-02   1.2500000000000001e-02   1.2500000000000001e-02   1.2500000000000001e-02   1.2500000000000001e-02   1.2500000000000001e-02   1.2500000000000001e-02   1.2500000000000001e-02   1.2500000000000001e-02   1.2500000000000001e-02   1.2500000000000001e-02   1.2500000000000001e-02   1.2500000000000001e-02   2.1749999999999998e+00   2.1749999999999998e+00   2.1749999999999998e+00   2.1749999999999998e+00   2.1749999999999998e+00   1.2500000000000001e-02   1.2500000000000001e-02   1.2500000000000001e-02   1.2500000000000001e-02   1.2500000000000001e-02   1.2500000000000001e-02   1.2500000000000001e-02   1.2500000000000001e-02   1.2500000000000001e-02   1.2500000000000001e-02   1.2500000000000001e-02   2.1749999999999998e+00   2.1749999999999998e+00   2.1749999999999998e+00   2.1749999999999998e+00   2.1749999999999998e+00   2.1749999999999998e+00   2.1749999999999998e+00   2.1749999999999998e+00   2.1749999999999998e+00   2.1749999999999998e+00   2.1749999999999998e+00   2.1749999999999998e+00   1.2500000000000001e-02   1.2500000000000001e-02   1.2500000000000001e-02   1.2500000000000001e-02   1.2500000000000001e-02   1.2500000000000001e-02   1.2500000000000001e-02   1.2500000000000001e-02   1.2500000000000001e-02   1.2500000000000001e-02   1.2500000000000001e-02   1.2500000000000001e-02   1.2500000000000001e-02   1.2500000000000001e-02   1.2500000000000001e-02   1.2500000000000001e-02   1.2500000000000001e-02   1.2500000000000001e-02   2.1749999999999998e+00   2.1749999999999998e+00   2.1749999999999998e+00   2.1749999999999998e+00   2.1749999999999998e+00   2.1749999999999998e+00   1.2500000000000001e-02   1.2500000000000001e-02   1.2500000000000001e-02   1.2500000000000001e-02   1.2500000000000001e-02   1.2500000000000001e-02   1.2500000000000001e-02   1.2500000000000001e-02   1.2500000000000001e-02   1.2500000000000001e-02   1.2500000000000001e-02   1.2500000000000001e-02   1.2500000000000001e-02   1.2500000000000001e-02   1.2500000000000001e-02   1.2500000000000001e-02   1.2500000000000001e-02   1.2500000000000001e-02   1.2500000000000001e-02   1.2500000000000001e-02   1.2500000000000001e-02   1.2500000000000001e-02   1.2500000000000001e-02   1.2500000000000001e-02   1.2500000000000001e-02   1.2500000000000001e-02   1.2500000000000001e-02   1.2500000000000001e-02   2.1749999999999998e+00   2.1749999999999998e+00   2.1749999999999998e+00   2.1749999999999998e+00   2.1749999999999998e+00   1.2500000000000001e-02   1.2500000000000001e-02   1.2500000000000001e-02   1.2500000000000001e-02   1.2500000000000001e-02   1.2500000000000001e-02   1.2500000000000001e-02   1.2500000000000001e-02   1.2500000000000001e-02   1.2500000000000001e-02   1.2500000000000001e-02   2.1749999999999998e+00   2.1749999999999998e+00   2.1749999999999998e+00   2.1749999999999998e+00   2.1749999999999998e+00   2.1749999999999998e+00   2.1749999999999998e+00   2.1749999999999998e+00   2.1749999999999998e+00   2.1749999999999998e+00   2.1749999999999998e+00   2.1749999999999998e+00   1.2500000000000001e-02   1.2500000000000001e-02   1.2500000000000001e-02   1.2500000000000001e-02   1.2500000000000001e-02   1.2500000000000001e-02   1.2500000000000001e-02   1.2500000000000001e-02   1.2500000000000001e-02   1.2500000000000001e-02   1.2500000000000001e-02   1.2500000000000001e-02   1.2500000000000001e-02   1.2500000000000001e-02   1.2500000000000001e-02   1.2500000000000001e-02   1.2500000000000001e-02   1.2500000000000001e-02   2.1749999999999998e+00   2.1749999999999998e+00   2.1749999999999998e+00   2.1749999999999998e+00   2.1749999999999998e+00   2.1749999999999998e+00   1.2500000000000001e-02   1.2500000000000001e-02   1.2500000000000001e-02   1.2500000000000001e-02   1.2500000000000001e-02   1.2500000000000001e-02   1.2500000000000001e-02   1.2500000000000001e-02   1.2500000000000001e-02   1.2500000000000001e-02   1.2500000000000001e-02   1.2500000000000001e-02   1.2500000000000001e-02   1.2500000000000001e-02   1.2500000000000001e-02   1.2500000000000001e-02   1.2500000000000001e-02   1.2500000000000001e-02   1.2500000000000001e-02   1.2500000000000001e-02   1.2500000000000001e-02   1.2500000000000001e-02   1.2500000000000001e-02   1.2500000000000001e-02   1.250000