<?xml version="1.0"?>
<VTKFile type="UnstructuredGrid"  version="0.1"  >
<UnstructuredGrid>
<Piece  NumberOfPoints="841" NumberOfCells="1600">
<Points>
<DataArray  type="Float64"  NumberOfComponents="3"  format="ascii">0 0 0  0.05 0 0  0.1 0 0  0.15 0 0  0.2 0 0  0.25 0 0  0.3 0 0  0.35 0 0  0.4 0 0  0.45 0 0  0.5 0 0  0.55 0 0  0.6 0 0  0.65 0 0  0.7 0 0  0.75 0 0  0.8 0 0  0.85 0 0  0.9 0 0  0.95 0 0  1 0 0  0 0.05 0  0.05 0.05 0  0.1 0.05 0  0.15 0.05 0  0.2 0.05 0  0.25 0.05 0  0.3 0.05 0  0.35 0.05 0  0.4 0.05 0  0.45 0.05 0  0.5 0.05 0  0.55 0.05 0  0.6 0.05 0  0.65 0.05 0  0.7 0.05 0  0.75 0.05 0  0.8 0.05 0  0.85 0.05 0  0.9 0.05 0  0.95 0.05 0  1 0.05 0  0 0.1 0  0.05 0.1 0  0.1 0.1 0  0.15 0.1 0  0.2 0.1 0  0.25 0.1 0  0.3 0.1 0  0.35 0.1 0  0.4 0.1 0  0.45 0.1 0  0.5 0.1 0  0.55 0.1 0  0.6 0.1 0  0.65 0.1 0  0.7 0.1 0  0.75 0.1 0  0.8 0.1 0  0.85 0.1 0  0.9 0.1 0  0.95 0.1 0  1 0.1 0  0 0.15 0  0.05 0.15 0  0.1 0.15 0  0.15 0.15 0  0.2 0.15 0  0.25 0.15 0  0.3 0.15 0  0.35 0.15 0  0.4 0.15 0  0.45 0.15 0  0.5 0.15 0  0.55 0.15 0  0.6 0.15 0  0.65 0.15 0  0.7 0.15 0  0.75 0.15 0  0.8 0.15 0  0.85 0.15 0  0.9 0.15 0  0.95 0.15 0  1 0.15 0  0 0.2 0  0.05 0.2 0  0.1 0.2 0  0.15 0.2 0  0.2 0.2 0  0.25 0.2 0  0.3 0.2 0  0.35 0.2 0  0.4 0.2 0  0.45 0.2 0  0.5 0.2 0  0.55 0.2 0  0.6 0.2 0  0.65 0.2 0  0.7 0.2 0  0.75 0.2 0  0.8 0.2 0  0.85 0.2 0  0.9 0.2 0  0.95 0.2 0  1 0.2 0  0 0.25 0  0.05 0.25 0  0.1 0.25 0  0.15 0.25 0  0.2 0.25 0  0.25 0.25 0  0.3 0.25 0  0.35 0.25 0  0.4 0.25 0  0.45 0.25 0  0.5 0.25 0  0.55 0.25 0  0.6 0.25 0  0.65 0.25 0  0.7 0.25 0  0.75 0.25 0  0.8 0.25 0  0.85 0.25 0  0.9 0.25 0  0.95 0.25 0  1 0.25 0  0 0.3 0  0.05 0.3 0  0.1 0.3 0  0.15 0.3 0  0.2 0.3 0  0.25 0.3 0  0.3 0.3 0  0.35 0.3 0  0.4 0.3 0  0.45 0.3 0  0.5 0.3 0  0.55 0.3 0  0.6 0.3 0  0.65 0.3 0  0.7 0.3 0  0.75 0.3 0  0.8 0.3 0  0.85 0.3 0  0.9 0.3 0  0.95 0.3 0  1 0.3 0  0 0.35 0  0.05 0.35 0  0.1 0.35 0  0.15 0.35 0  0.2 0.35 0  0.25 0.35 0  0.3 0.35 0  0.35 0.35 0  0.4 0.35 0  0.45 0.35 0  0.5 0.35 0  0.55 0.35 0  0.6 0.35 0  0.65 0.35 0  0.7 0.35 0  0.75 0.35 0  0.8 0.35 0  0.85 0.35 0  0.9 0.35 0  0.95 0.35 0  1 0.35 0  0 0.4 0  0.05 0.4 0  0.1 0.4 0  0.15 0.4 0  0.2 0.4 0  0.25 0.4 0  0.3 0.4 0  0.35 0.4 0  0.4 0.4 0  0.45 0.4 0  0.5 0.4 0  0.55 0.4 0  0.6 0.4 0  0.65 0.4 0  0.7 0.4 0  0.75 0.4 0  0.8 0.4 0  0.85 0.4 0  0.9 0.4 0  0.95 0.4 0  1 0.4 0  0 0.45 0  0.05 0.45 0  0.1 0.45 0  0.15 0.45 0  0.2 0.45 0  0.25 0.45 0  0.3 0.45 0  0.35 0.45 0  0.4 0.45 0  0.45 0.45 0  0.5 0.45 0  0.55 0.45 0  0.6 0.45 0  0.65 0.45 0  0.7 0.45 0  0.75 0.45 0  0.8 0.45 0  0.85 0.45 0  0.9 0.45 0  0.95 0.45 0  1 0.45 0  0 0.5 0  0.05 0.5 0  0.1 0.5 0  0.15 0.5 0  0.2 0.5 0  0.25 0.5 0  0.3 0.5 0  0.35 0.5 0  0.4 0.5 0  0.45 0.5 0  0.5 0.5 0  0.55 0.5 0  0.6 0.5 0  0.65 0.5 0  0.7 0.5 0  0.75 0.5 0  0.8 0.5 0  0.85 0.5 0  0.9 0.5 0  0.95 0.5 0  1 0.5 0  0 0.55 0  0.05 0.55 0  0.1 0.55 0  0.15 0.55 0  0.2 0.55 0  0.25 0.55 0  0.3 0.55 0  0.35 0.55 0  0.4 0.55 0  0.45 0.55 0  0.5 0.55 0  0.55 0.55 0  0.6 0.55 0  0.65 0.55 0  0.7 0.55 0  0.75 0.55 0  0.8 0.55 0  0.85 0.55 0  0.9 0.55 0  0.95 0.55 0  1 0.55 0  0 0.6 0  0.05 0.6 0  0.1 0.6 0  0.15 0.6 0  0.2 0.6 0  0.25 0.6 0  0.3 0.6 0  0.35 0.6 0  0.4 0.6 0  0.45 0.6 0  0.5 0.6 0  0.55 0.6 0  0.6 0.6 0  0.65 0.6 0  0.7 0.6 0  0.75 0.6 0  0.8 0.6 0  0.85 0.6 0  0.9 0.6 0  0.95 0.6 0  1 0.6 0  0 0.65 0  0.05 0.65 0  0.1 0.65 0  0.15 0.65 0  0.2 0.65 0  0.25 0.65 0  0.3 0.65 0  0.35 0.65 0  0.4 0.65 0  0.45 0.65 0  0.5 0.65 0  0.55 0.65 0  0.6 0.65 0  0.65 0.65 0  0.7 0.65 0  0.75 0.65 0  0.8 0.65 0  0.85 0.65 0  0.9 0.65 0  0.95 0.65 0  1 0.65 0  0 0.7 0  0.05 0.7 0  0.1 0.7 0  0.15 0.7 0  0.2 0.7 0  0.25 0.7 0  0.3 0.7 0  0.35 0.7 0  0.4 0.7 0  0.45 0.7 0  0.5 0.7 0  0.55 0.7 0  0.6 0.7 0  0.65 0.7 0  0.7 0.7 0  0.75 0.7 0  0.8 0.7 0  0.85 0.7 0  0.9 0.7 0  0.95 0.7 0  1 0.7 0  0 0.75 0  0.05 0.75 0  0.1 0.75 0  0.15 0.75 0  0.2 0.75 0  0.25 0.75 0  0.3 0.75 0  0.35 0.75 0  0.4 0.75 0  0.45 0.75 0  0.5 0.75 0  0.55 0.75 0  0.6 0.75 0  0.65 0.75 0  0.7 0.75 0  0.75 0.75 0  0.8 0.75 0  0.85 0.75 0  0.9 0.75 0  0.95 0.75 0  1 0.75 0  0 0.8 0  0.05 0.8 0  0.1 0.8 0  0.15 0.8 0  0.2 0.8 0  0.25 0.8 0  0.3 0.8 0  0.35 0.8 0  0.4 0.8 0  0.45 0.8 0  0.5 0.8 0  0.55 0.8 0  0.6 0.8 0  0.65 0.8 0  0.7 0.8 0  0.75 0.8 0  0.8 0.8 0  0.85 0.8 0  0.9 0.8 0  0.95 0.8 0  1 0.8 0  0 0.85 0  0.05 0.85 0  0.1 0.85 0  0.15 0.85 0  0.2 0.85 0  0.25 0.85 0  0.3 0.85 0  0.35 0.85 0  0.4 0.85 0  0.45 0.85 0  0.5 0.85 0  0.55 0.85 0  0.6 0.85 0  0.65 0.85 0  0.7 0.85 0  0.75 0.85 0  0.8 0.85 0  0.85 0.85 0  0.9 0.85 0  0.95 0.85 0  1 0.85 0  0 0.9 0  0.05 0.9 0  0.1 0.9 0  0.15 0.9 0  0.2 0.9 0  0.25 0.9 0  0.3 0.9 0  0.35 0.9 0  0.4 0.9 0  0.45 0.9 0  0.5 0.9 0  0.55 0.9 0  0.6 0.9 0  0.65 0.9 0  0.7 0.9 0  0.75 0.9 0  0.8 0.9 0  0.85 0.9 0  0.9 0.9 0  0.95 0.9 0  1 0.9 0  0 0.95 0  0.05 0.95 0  0.1 0.95 0  0.15 0.95 0  0.2 0.95 0  0.25 0.95 0  0.3 0.95 0  0.35 0.95 0  0.4 0.95 0  0.45 0.95 0  0.5 0.95 0  0.55 0.95 0  0.6 0.95 0  0.65 0.95 0  0.7 0.95 0  0.75 0.95 0  0.8 0.95 0  0.85 0.95 0  0.9 0.95 0  0.95 0.95 0  1 0.95 0  0 1 0  0.05 1 0  0.1 1 0  0.15 1 0  0.2 1 0  0.25 1 0  0.3 1 0  0.35 1 0  0.4 1 0  0.45 1 0  0.5 1 0  0.55 1 0  0.6 1 0  0.65 1 0  0.7 1 0  0.75 1 0  0.8 1 0  0.85 1 0  0.9 1 0  0.95 1 0  1 1 0  0.025 0.025 0  0.075 0.025 0  0.125 0.025 0  0.175 0.025 0  0.225 0.025 0  0.275 0.025 0  0.325 0.025 0  0.375 0.025 0  0.425 0.025 0  0.475 0.025 0  0.525 0.025 0  0.575 0.025 0  0.625 0.025 0  0.675 0.025 0  0.725 0.025 0  0.775 0.025 0  0.825 0.025 0  0.875 0.025 0  0.925 0.025 0  0.975 0.025 0  0.025 0.075 0  0.075 0.075 0  0.125 0.075 0  0.175 0.075 0  0.225 0.075 0  0.275 0.075 0  0.325 0.075 0  0.375 0.075 0  0.425 0.075 0  0.475 0.075 0  0.525 0.075 0  0.575 0.075 0  0.625 0.075 0  0.675 0.075 0  0.725 0.075 0  0.775 0.075 0  0.825 0.075 0  0.875 0.075 0  0.925 0.075 0  0.975 0.075 0  0.025 0.125 0  0.075 0.125 0  0.125 0.125 0  0.175 0.125 0  0.225 0.125 0  0.275 0.125 0  0.325 0.125 0  0.375 0.125 0  0.425 0.125 0  0.475 0.125 0  0.525 0.125 0  0.575 0.125 0  0.625 0.125 0  0.675 0.125 0  0.725 0.125 0  0.775 0.125 0  0.825 0.125 0  0.875 0.125 0  0.925 0.125 0  0.975 0.125 0  0.025 0.175 0  0.075 0.175 0  0.125 0.175 0  0.175 0.175 0  0.225 0.175 0  0.275 0.175 0  0.325 0.175 0  0.375 0.175 0  0.425 0.175 0  0.475 0.175 0  0.525 0.175 0  0.575 0.175 0  0.625 0.175 0  0.675 0.175 0  0.725 0.175 0  0.775 0.175 0  0.825 0.175 0  0.875 0.175 0  0.925 0.175 0  0.975 0.175 0  0.025 0.225 0  0.075 0.225 0  0.125 0.225 0  0.175 0.225 0  0.225 0.225 0  0.275 0.225 0  0.325 0.225 0  0.375 0.225 0  0.425 0.225 0  0.475 0.225 0  0.525 0.225 0  0.575 0.225 0  0.625 0.225 0  0.675 0.225 0  0.725 0.225 0  0.775 0.225 0  0.825 0.225 0  0.875 0.225 0  0.925 0.225 0  0.975 0.225 0  0.025 0.275 0  0.075 0.275 0  0.125 0.275 0  0.175 0.275 0  0.225 0.275 0  0.275 0.275 0  0.325 0.275 0  0.375 0.275 0  0.425 0.275 0  0.475 0.275 0  0.525 0.275 0  0.575 0.275 0  0.625 0.275 0  0.675 0.275 0  0.725 0.275 0  0.775 0.275 0  0.825 0.275 0  0.875 0.275 0  0.925 0.275 0  0.975 0.275 0  0.025 0.325 0  0.075 0.325 0  0.125 0.325 0  0.175 0.325 0  0.225 0.325 0  0.275 0.325 0  0.325 0.325 0  0.375 0.325 0  0.425 0.325 0  0.475 0.325 0  0.525 0.325 0  0.575 0.325 0  0.625 0.325 0  0.675 0.325 0  0.725 0.325 0  0.775 0.325 0  0.825 0.325 0  0.875 0.325 0  0.925 0.325 0  0.975 0.325 0  0.025 0.375 0  0.075 0.375 0  0.125 0.375 0  0.175 0.375 0  0.225 0.375 0  0.275 0.375 0  0.325 0.375 0  0.375 0.375 0  0.425 0.375 0  0.475 0.375 0  0.525 0.375 0  0.575 0.375 0  0.625 0.375 0  0.675 0.375 0  0.725 0.375 0  0.775 0.375 0  0.825 0.375 0  0.875 0.375 0  0.925 0.375 0  0.975 0.375 0  0.025 0.425 0  0.075 0.425 0  0.125 0.425 0  0.175 0.425 0  0.225 0.425 0  0.275 0.425 0  0.325 0.425 0  0.375 0.425 0  0.425 0.425 0  0.475 0.425 0  0.525 0.425 0  0.575 0.425 0  0.625 0.425 0  0.675 0.425 0  0.725 0.425 0  0.775 0.425 0  0.825 0.425 0  0.875 0.425 0  0.925 0.425 0  0.975 0.425 0  0.025 0.475 0  0.075 0.475 0  0.125 0.475 0  0.175 0.475 0  0.225 0.475 0  0.275 0.475 0  0.325 0.475 0  0.375 0.475 0  0.425 0.475 0  0.475 0.475 0  0.525 0.475 0  0.575 0.475 0  0.625 0.475 0  0.675 0.475 0  0.725 0.475 0  0.775 0.475 0  0.825 0.475 0  0.875 0.475 0  0.925 0.475 0  0.975 0.475 0  0.025 0.525 0  0.075 0.525 0  0.125 0.525 0  0.175 0.525 0  0.225 0.525 0  0.275 0.525 0  0.325 0.525 0  0.375 0.525 0  0.425 0.525 0  0.475 0.525 0  0.525 0.525 0  0.575 0.525 0  0.625 0.525 0  0.675 0.525 0  0.725 0.525 0  0.775 0.525 0  0.825 0.525 0  0.875 0.525 0  0.925 0.525 0  0.975 0.525 0  0.025 0.575 0  0.075 0.575 0  0.125 0.575 0  0.175 0.575 0  0.225 0.575 0  0.275 0.575 0  0.325 0.575 0  0.375 0.575 0  0.425 0.575 0  0.475 0.575 0  0.525 0.575 0  0.575 0.575 0  0.625 0.575 0  0.675 0.575 0  0.725 0.575 0  0.775 0.575 0  0.825 0.575 0  0.875 0.575 0  0.925 0.575 0  0.975 0.575 0  0.025 0.625 0  0.075 0.625 0  0.125 0.625 0  0.175 0.625 0  0.225 0.625 0  0.275 0.625 0  0.325 0.625 0  0.375 0.625 0  0.425 0.625 0  0.475 0.625 0  0.525 0.625 0  0.575 0.625 0  0.625 0.625 0  0.675 0.625 0  0.725 0.625 0  0.775 0.625 0  0.825 0.625 0  0.875 0.625 0  0.925 0.625 0  0.975 0.625 0  0.025 0.675 0  0.075 0.675 0  0.125 0.675 0  0.175 0.675 0  0.225 0.675 0  0.275 0.675 0  0.325 0.675 0  0.375 0.675 0  0.425 0.675 0  0.475 0.675 0  0.525 0.675 0  0.575 0.675 0  0.625 0.675 0  0.675 0.675 0  0.725 0.675 0  0.775 0.675 0  0.825 0.675 0  0.875 0.675 0  0.925 0.675 0  0.975 0.675 0  0.025 0.725 0  0.075 0.725 0  0.125 0.725 0  0.175 0.725 0  0.225 0.725 0  0.275 0.725 0  0.325 0.725 0  0.375 0.725 0  0.425 0.725 0  0.475 0.725 0  0.525 0.725 0  0.575 0.725 0  0.625 0.725 0  0.675 0.725 0  0.725 0.725 0  0.775 0.725 0  0.825 0.725 0  0.875 0.725 0  0.925 0.725 0  0.975 0.725 0  0.025 0.775 0  0.075 0.775 0  0.125 0.775 0  0.175 0.775 0  0.225 0.775 0  0.275 0.775 0  0.325 0.775 0  0.375 0.775 0  0.425 0.775 0  0.475 0.775 0  0.525 0.775 0  0.575 0.775 0
[...]
<CellData  Scalars="f_172895"> 
<DataArray  type="Float64"  Name="f_172895"  format="ascii">1.0000000000000000e-02   1.7325605583464940e+00   1.0000000000000000e-02   1.0000000000000000e-02   1.0000000000000000e-02   1.0000000000000000e-02   1.0000000000000000e-02   1.0000000000000000e-02   1.0000000000000000e-02   1.0000000000000000e-02   1.0000000000000000e-02   1.0000000000000000e-02   1.0000000000000000e-02   1.0000000000000000e-02   1.0000000000000000e-02   1.0000000000000000e-02   1.0000000000000000e-02   1.0000000000000000e-02   1.0000000000000000e-02   1.0000000000000000e-02   1.0000000000000000e-02   1.0000000000000000e-02   1.0000000000000000e-02   1.0000000000000000e-02   1.0000000000000000e-02   1.6083841571509745e+00   1.0000000000000000e-02   1.0000000000000000e-02   1.0000000000000000e-02   1.2735824594060459e+00   1.0000000000000000e-02   1.0000000000000000e-02   1.0000000000000000e-02   1.0000000000000000e-02   1.0000000000000000e-02   1.0000000000000000e-02   1.0000000000000000e-02   1.0000000000000000e-02   1.0000000000000000e-02   1.0000000000000000e-02   1.0000000000000000e-02   1.0000000000000000e-02   1.0000000000000000e-02   1.0000000000000000e-02   1.0000000000000000e-02   1.0000000000000000e-02   8.4152082333379452e-01   1.0000000000000000e-02   9.6504031497332354e-01   2.6076775219548548e-01   1.0000000000000000e-02   9.6699911014964512e-01   1.0000000000000000e-02   1.0000000000000000e-02   1.0000000000000000e-02   1.0000000000000000e-02   1.0000000000000000e-02   1.0000000000000000e-02   1.0000000000000000e-02   1.0000000000000000e-02   1.0000000000000000e-02   1.0000000000000000e-02   1.0000000000000000e-02   1.0000000000000000e-02   1.0000000000000000e-02   1.0000000000000000e-02   1.0000000000000000e-02   1.0000000000000000e-02   1.0000000000000000e-02   1.0000000000000000e-02   1.0000000000000000e-02   1.0000000000000000e-02   1.0000000000000000e-02   1.0000000000000000e-02   1.0000000000000000e-02   1.0000000000000000e-02   1.0000000000000000e-02   1.0000000000000000e-02   1.0000000000000000e-02   1.0000000000000000e-02   1.0000000000000000e-02   1.7325410202058031e+00   1.0000000000000000e-02   1.0000000000000000e-02   1.0000000000000000e-02   1.0000000000000000e-02   1.0000000000000000e-02   1.0000000000000000e-02   1.0000000000000000e-02   1.0000000000000000e-02   1.0000000000000000e-02   1.0000000000000000e-02   1.0000000000000000e-02   1.0000000000000000e-02   1.0000000000000000e-02   1.0000000000000000e-02   1.0000000000000000e-02   1.0000000000000000e-02   1.0000000000000000e-02   1.0000000000000000e-02   1.0000000000000000e-02   1.0000000000000000e-02   1.0000000000000000e-02   1.0000000000000000e-02   1.0000000000000000e-02   1.6082486658406230e+00   1.0000000000000000e-02   1.0000000000000000e-02   1.0000000000000000e-02   1.2732623893769861e+00   1.0000000000000000e-02   1.0000000000000000e-02   1.0000000000000000e-02   1.0000000000000000e-02   1.0000000000000000e-02   1.0000000000000000e-02   1.0000000000000000e-02   1.0000000000000000e-02   1.0000000000000000e-02   1.0000000000000000e-02   1.0000000000000000e-02   1.0000000000000000e-02   1.0000000000000000e-02   1.0000000000000000e-02   1.0000000000000000e-02   1.0000000000000000e-02   1.0000000000000000e-02   1.0000000000000000e-02   9.5891069064550172e-01   9.7133978493720208e-01   1.0000000000000000e-02   9.6168207665078809e-01   1.0000000000000000e-02   1.0000000000000000e-02   1.0000000000000000e-02   1.0000000000000000e-02   1.0000000000000000e-02   1.0000000000000000e-02   1.0000000000000000e-02   1.0000000000000000e-02   1.0000000000000000e-02   1.0000000000000000e-02   1.0000000000000000e-02   1.0000000000000000e-02   1.0000000000000000e-02   1.0000000000000000e-02   1.0000000000000000e-02   1.0000000000000000e-02   1.0000000000000000e-02   1.0000000000000000e-02   1.0000000000000000e-02   1.0000000000000000e-02   1.0000000000000000e-02   1.0000000000000000e-02   1.0000000000000000e-02   1.0000000000000000e-02   1.0000000000000000e-02   1.0000000000000000e-02   1.0000000000000000e-02   1.0000000000000000e-02   1.0000000000000000e-02   1.7325045503061955e+00   1.0000000000000000e-02   1.0000000000000000e-02   1.0000000000000000e-02   1.0000000000000000e-02   1.0000000000000000e-02   1.0000000000000000e-02   1.0000000000000000e-02   1.0000000000000000e-02   1.0000000000000000e-02   1.0000000000000000e-02   1.0000000000000000e-02   1.0000000000000000e-02   1.0000000000000000e-02   1.0000000000000000e-02   1.0000000000000000e-02   1.0000000000000000e-02   1.0000000000000000e-02   1.0000000000000000e-02   1.0000000000000000e-02   1.0000000000000000e-02   1.0000000000000000e-02   1.0000000000000000e-02   1.0000000000000000e-02   1.6077142008486667e+00   1.0000000000000000e-02   1.0000000000000000e-02   1.0000000000000000e-02   1.2723264048033269e+00   1.0000000000000000e-02   1.0000000000000000e-02   1.0000000000000000e-02   1.0000000000000000e-02   1.0000000000000000e-02   1.0000000000000000e-02   1.0000000000000000e-02   1.0000000000000000e-02   1.0000000000000000e-02   1.0000000000000000e-02   1.0000000000000000e-02   1.0000000000000000e-02   1.0000000000000000e-02   1.0000000000000000e-02   1.0000000000000000e-02   1.0000000000000000e-02   1.0000000000000000e-02   1.0000000000000000e-02   9.5949788953689585e-01   9.7493733444267539e-01   1.0000000000000000e-02   9.5739152798740568e-01   1.0000000000000000e-02   1.0000000000000000e-02   1.0000000000000000e-02   1.0000000000000000e-02   1.0000000000000000e-02   1.0000000000000000e-02   1.0000000000000000e-02   1.0000000000000000e-02   1.0000000000000000e-02   1.0000000000000000e-02   1.0000000000000000e-02   1.0000000000000000e-02   1.0000000000000000e-02   1.0000000000000000e-02   1.0000000000000000e-02   1.0000000000000000e-02   1.0000000000000000e-02   1.0000000000000000e-02   1.0000000000000000e-02   1.0000000000000000e-02   1.0000000000000000e-02   1.0000000000000000e-02   1.0000000000000000e-02   1.0000000000000000e-02   1.0000000000000000e-02   1.0000000000000000e-02   1.0000000000000000e-02   1.0000000000000000e-02   1.0000000000000000e-02   1.7324543218649644e+00   1.0000000000000000e-02   1.0000000000000000e-02   1.0000000000000000e-02   1.0000000000000000e-02   1.0000000000000000e-02   1.0000000000000000e-02   1.0000000000000000e-02   1.0000000000000000e-02   1.0000000000000000e-02   1.0000000000000000e-02   1.0000000000000000e-02   1.0000000000000000e-02   1.0000000000000000e-02   1.0000000000000000e-02   1.0000000000000000e-02   1.0000000000000000e-02   1.0000000000000000e-02   1.0000000000000000e-02   1.0000000000000000e-02   1.0000000000000000e-02   1.0000000000000000e-02   1.0000000000000000e-02   1.0000000000000000e-02   1.6069433423431529e+00   1.0000000000000000e-02   1.0000000000000000e-02   1.0000000000000000e-02   1.2695710035628320e+00   1.0000000000000000e-02   1.0000000000000000e-02   1.0000000000000000e-02   1.0000000000000000e-02   1.0000000000000000e-02   1.0000000000000000e-02   1.0000000000000000e-02   1.0000000000000000e-02   1.0000000000000000e-02   1.0000000000000000e-02   1.0000000000000000e-02   1.0000000000000000e-02   1.0000000000000000e-02   1.0000000000000000e-02   1.0000000000000000e-02   1.0000000000000000e-02   1.0000000000000000e-02   1.0000000000000000e-02   9.6530570965696383e-01   9.6659593853693426e-01   1.0000000000000000e-02   9.5905468045930464e-01   1.0000000000000000e-02   1.0000000000000000e-02   1.0000000000000000e-02   1.0000000000000000e-02   1.0000000000000000e-02   1.0000000000000000e-02   1.0000000000000000e-02   1.0000000000000000e-02   1.0000000000000000e-02   1.0000000000000000e-02   1.0000000000000000e-02   1.0000000000000000e-02   1.0000000000000000e-02   1.0000000000000000e-02   1.0000000000000000e-02   1.0000000000000000e-02   1.0000000000000000e-02   1.0000000000000000e-02   1.0000000000000000e-02   1.0000000000000000e-02   1.0000000000000000e-02   1.0000000000000000e-02   1.0000000000000000e-02   1.0000000000000000e-02   1.0000000000000000e-02   1.0000000000000000e-02   1.0000000000000000e-02   1.0000000000000000e-02   1.0000000000000000e-02   1.7323931670306221e+00   1.0000000000000000e-02   1.0000000000000000e-02   1.0000000000000000e-02   1.0000000000000000e-02   1.0000000000000000e-02   1.0000000000000000e-02   1.0000000000000000e-02   1.0000000000000000e-02   1.0000000000000000e-02   1.0000000000000000e-02   1.0000000000000000e-02   1.0000000000000000e-02   1.0000000000000000e-02   1.0000000000000000e-02   1.0000000000000000e-02   1.0000000000000000e-02   1.0000000000000000e-02   1.0000000000000000e-02   1.0000000000000000e-02   1.0000000000000000e-02   1.0000000000000000e-02   1.0000000000000000e-02   1.0000000000000000e-02   1.6032801048857228e+00   1.2202289181175614e-01   1.0000000000000000e-02   1.0000000000000000e-02   1.1797544749661746e+00   1.0000000000000000e-02   1.0000000000000000e-02   1.0000000000000000e-02   1.0000000000000000e-02   1.0000000000000000e-02   1.0000000000000000e-02   1.0000000000000000e-02   1.0000000000000000e-02   1.0000000000000000e-02   1.0000000000000000e-02   1.0000000000000000e-02   1.0000000000000000e-02   1.0000000000000000e-02   1.0000000000000000e-02   1.0000000000000000e-02   1.0000000000000000e-02   1.0000000000000000e-02   1.0000000000000000e-02   9.7455606596009092e-01   9.4433350315753972e-01   1.0000000000000000e-02   9.7440458601673618e-01   1.0000000000000000e-02   1.0000000000000000e-02   1.0000000000000000e-02   1.0000000000000000e-02   1.0000000000000000e-02   1.0000000000000000e-02   1.0000000000000000e-02   1.0000000000000000e-02   1.0000000000000000e-02   1.0000000000000000e-02   1.0000000000000000e-02   1.0000000000000000e-02   1.0000000000000000e-02   1.0000000000000000e-02   1.0000000000000000e-02   1.0000000000000000e-02   1.0000000000000000e-02   1.0000000000000000e-02   1.0000000000000000e-02   1.0000000000000000e-02   1.0000000000000000e-02   1.0000000000000000e-02   1.0000000000000000e-02   1.0000000000000000e-02   1.0000000000000000e-02   1.0000000000000000e-02   1.0000000000000000e-02   1.0000000000000000e-02   1.0000000000000000e-02   1.7323216130635370e+00   1.0000000000000000e-02   1.0000000000000000e-02   1.0000000000000000e-02   1.0000000000000000e-02   1.0000000000000000e-02   1.0000000000000000e-02   1.0000000000000000e-02   1.0000000000000000e-02   1.0000000000000000e-02   1.0000000000000000e-02   1.0000000000000000e-02   1.0000000000000000e-02   1.0000000000000000e-02   1.0000000000000000e-02   1.0000000000000000e-02   1.0000000000000000e-02   1.0000000000000000e-02   1.0000000000000000e-02   1.0000000000000000e-02   1.0000000000000000e-02   1.0000000000000000e-02   1.0000000000000000e-02   1.0000000000000000e-02   1.5540267412795308e+00   1.2674702431765792e+00   1.0000000000000000e-02   1.0000000000000000e-02   1.0000000000000000e-02   1.0000000000000000e-02   1.0000000000000000e-02   1.0000000000000000e-02   1.0000000000000000e-02   1.0000000000000000e-02   1.0000000000000000e-02   1.0000000000000000e-02   1.0000000000000000e-02   1.0000000000000000e-02   1.0000000000000000e-02   1.0000000000000000e-02   1.0000000000000000e-02   1.0000000000000000e-02   1.0000000000000000e-02   5.3179451344470288e-02   5.8384247111193159e-02   1.0000000000000000e-02   1.0000000000000000e-02   1.0000000000000000e-02   1.4538676852712513e+00   1.0000000000000000e-02   4.9200631223517310e-02   1.0000000000000000e-02   9.7117060984124737e-01   1.0000000000000000e-02   1.0000000000000000e-02   1.0000000000000000e-02   1.0000000000000000e-02   1.0000000000000000e-02   1.0000000000000000e-02   1.0000000000000000e-02   1.0000000000000000e-02   1.0000000000000000e-02   1.0000000000000000e-02   1.0000000000000000e-02   1.0000000000000000e-02   1.0000000000000000e-02   1.0000000000000000e-02   1.0000000000000000e-02   1.0000000000000000e-02   1.0000000000000000e-02   1.0000000000000000e-02   1.0000000000000000e-02   1.0000000000000000e-02   1.0000000000000000e-02   1.0000000000000000e-02   1.0000000000000000e-02   1.0000000000000000e-02   1.0000000000000000e-02   1.0000000000000000e-02   1.0000000000000000e-02   1.7322391711716065e+00   1.0000000000000000e-02   1.0000000000000000e-02   1.0000000000000000e-02   1.0000000000000000e-02   1.0000000000000000e-02   1.0000000000000000e-02   1.0000000000000000e-02   1.0000000000000000e-02   1.0000000000000000e-02   1.0000000000000000e-02   1.0000000000000000e-02   1.0000000000000000e-02   1.0000000000000000e-02   1.0000000000000000e-02   1.0000000000000000e-02   1.0000000000000000e-02   1.0000000000000000e-02   1.0000000000000000e-02   1.0000000000000000e-02   1.0000000000000000e-02   1.5739707560140590e+00   1.0000000000000000e-02   1.0000000000000000e-02   1.0000000000000000e-02   1.2688958678520972e+00   1.0000000000000000e-02   1.0000000000000000e-02   1.0000000000000000e-02   1.0000000000000000e-02   1.0000000000000000e-02   1.0000000000000000e-02   1.0000000000000000e-02   1.0000000000000000e-02   1.0000000000000000e-02   1.0000000000000000e-02   1.0000000000000000e-02   1.0000000000000000e-02   1.0000000000000000e-02   1.0000000000000000e-02   1.0000000000000000e-02   1.0000000000000000e-02   1.0000000000000000e-02   4.7522712720548127e-01   5.1429221510472356e-01   1.0000000000000000e-02   1.0000000000000000e-02   1.0000000000000000e-02   1.1606686982846353e+00   1.0000000000000000e-02   4.2592702571666458e-01   1.0000000000000000e-02   1.0034498986318567e+00   1.0000000000000000e-02   1.0000000000000000e-02   1.0000000000000000e-02   1.0000000000000000e-02   1.0000000000000000e-02   1.0000000000000000e-02   1.0000000000000000e-02   1.0000000000000000e-02   1.0000000000000000e-02   1.0000000000000000e-02   1.0000000000000000e-02   1.0000000000000000e-02   1.0000000000000000e-02   1.0000000000000000e-02   1.0000000000000000e-02   1.0000000000000000e-02   1.0000000000000000e-02   1.0000000000000000e-02   1.0000000000000000e-02   1.0000000000000000e-02   1.0000000000000000e-02   1.0000000000000000e-02   1.0000000000000000e-02   1.0000000000000000e-02   1.0000000000000000e-02   1.0000000000000000e-02   1.0000000000000000e-02   1.7321159293091684e+00   1.0000000000000000e-02   1.0000000000000000e-02   1.0000000000000000e-02   1.0000000000000000e-02   1.0000000000000000e-02   1.0000000000000000e-02   1.0000000000000000e-02   1.0000000000000000e-02   1.0000000000000000e-02   1.0000000000000000e-02   1.0000000000000000e-02   1.0000000000000000e-02   1.0000000000000000e-02   1.0000000000000000e-02   1.0000000000000000e-02   1.0000000000000000e-02   1.0000000000000000e-02   1.0000000000000000e-02   1.0000000000000000e-02   1.0000000000000000e-02   1.6126119517180322e+00   1.0000000000000000e-02   1.0000000000000000e-02   1.0000000000000000e-02   1.2673580939099043e+00   1.0000000000000000e-02   1.0000000000000000e-02   1.0000000000000000e-02   1.0000000000000000e-02   1.0000000000000000e-02   1.0000000000000000e-02   1.0000000000000000e-02   1.0000000000000000e-02   1.0000000000000000e-02   1.0000000000000000e-02   1.0000000000000000e-02   1.0000000000000000e-02   1.0000000000000000e-02   1.0000000000000000e-02   1.0000000000000000e-02   1.0000000000000000e-02   1.0000000000000000e-02   4.4348272917308446e-01   6.0485704448187205e-01   1.0000000000000000e-02   1.0000000000000000e-02   1.0000000000000000e-02   9.7615727709278566e-01   1.0000000000000000e-02   1.0000000000000000e-02   1.0000000000000000e-02   1.1232959506630811e+00   1.0000000000000000e-02   3.0290741092452328e-01   1.0000000000000000e-02   1.0000000000000000e-02   1.0000000000000000e-02   1.0000000000000000e-02   1.0000000000000000e-02   1.0000000000000000e-02   1.0000000000000000e-02   1.0000000000000000e-02   1.0000000000000000e-02   1.0000000000000000e-02   1.0000000000000000e-02   1.0000000000000000e-02   1.0000000000000000e-02   1.0000000000000000e-02   1.0000000000000000e-02   1.0000000000000000e-02   1.0000000000000000e-02   1.0000000000000000e-02   1.0000000000000000e-02   1.0000000000000000e-02   1.0000000000000000e-02   1.0000000000000000e-02   1.0000000000000000e-02   1.0000000000000000e-02   1.0000000000000000e-02   1.7320158558989043e+00   1.0000000000000000e-02   1.0000000000000000e-02   1.0000000000000000e-02   1.0000000000000000e-02   1.0000000000000000e-02   1.0000000000000000e-02   1.0000000000000000e-02   1.0000000000000000e-02   1.0000000000000000e-02   1.0000000000000000e-02   1.0000000000000000e-02   1.0000000000000000e-02   1.0000000000000000e-02   1.0000000000000000e-02   1.0000000000000000e-02   1.0000000000000000e-02   1.0000000000000000e-02   1.0000000000000000e-02   1.0000000000000000e-02   1.0000000000000000e-02   1.6155679940448624e+00   1.0000000000000000e-02   1.0000000000000000e-02   1.0000000000000000e-02   1.2655425362028951e+00   1.0000000000000000e-02   1.0000000000000000e-02   1.0000000000000000e-02   1.0000000000000000e-02   1.0000000000000000e-02   1.0000000000000000e-02   1.0000000000000000e-02   1.0000000000000000e-02   1.0000000000000000e-02   1.0000000000000000e-02   1.0000000000000000e-02   1.0000000000000000e-02   1.0000000000000000e-02   1.0000000000000000e-02   1.0000000000000000e-02   1.0000000000000000e-02   1.0000000000000000e-02   2.9687311858841592e-01   7.2775348034415599e-01   1.0000000000000000e-02   1.0000000000000000e-02   1.0000000000000000e-02   8.5987648323320165e-01   1.0000000000000000e-02   1.0000000000000000e-02   1.0000000000000000e-02   1.0153277162591392e+00   1.0000000000000000e-02   3.0131160881156366e-01   1.0000000000000000e-02   3.1141466537147644e-01   1.0000000000000000e-02   1.0000000000000000e-02   1.0000000000000000e-02   1.0000000000000000e-02   1.0000000000000000e-02   1.0000000000000000e-02   1.0000000000000000e-02   1.0000000000000000e-02   1.0000000000000000e-02   1.0000000000000000e-02   1.0000000000000000e-02   1.0000000000000000e-02   1.0000000000000000e-02   1.0000000000000000e-02   1.0000000000000000e-02   1.0000000000000000e-02   1.0000000000000000e-02   1.0000000000000000e-02   1.0000000000000000e-02   1.0000000000000000e-02   1.0000000000000000e-02   1.0000000000000000e-02   1.0000000000000000e-02   1.7318775159155371e+00   1.0000000000000000e-02   1.0000000000000000e-02   1.0000000000000000e-02   1.0000000000000000e-02   1.0000000000000000e-02   1.0000000000000000e-02   1.0000000000000000e-02   1.0000000000000000e-02   1.0000000000000000e-02   1.0000000000000000e-02   1.0000000000000000e-02   1.0000000000000000e-02   1.0000000000000000e-02   1.0000000000000000e-02   1.0000000000000000e-02   1.0000000000000000e-02   1.0000000000000000e-02   1.0000000000000000e-02   1.0000000000000000e-02   1.0000000000000000e-02   1.6166729856432842e+00   1.0000000000000000e-02   1.0000000000000000e-02   1.0000000000000000e-02   1.2604310103820835e+00   3.9632136943099916e-02   1.0000000000000000e-02   1.0000000000000000e-02   1.0000000000000000e-02   1.0000000000000000e-02   1.0000000000000000e-02   1.0000000000000000e-02   1.0000000000000000e-02   1.0000000000000000e-02   1.0000000000000000e-02   1.0000000000000000e-02   1.0000000000000000e-02   1.0000000000000000e-02   2.9298667521051075e-01   2.8895407604234064e-01   1.0000000000000000e-02   1.0000000000000000e-02   1.0000000000000000e-02   6.8888032923033704e-01   1.0000000000000000e-02   1.0000000000000000e-02   1.0000000000000000e-02   8.5828300596674367e-01   1.0000000000000000e-02   1.0000000000000000e-02   1.0000000000000000e-02   9.0228420451338209e-01   1.0000000000000000e-02   2.9919645701181946e-01   1.0000000000000000e-02   4.9281685668013636e-01   1.0000000000000000e-02   1.0000000000000000e-02   1.0000000000000000e-02   1.0000000000000000e-02   1.0000000000000000e-02   1.0000000000000000e-02   1.0000000000000000e-02   1.0000000000000000e-02   1.0000000000000000e-02   1.0000000000000000e-02   1.0000000000000000e-02   1.0000000000000000e-02   1.0000000000000000e-02   1.0000000000000000e-02   1.0000000000000000e-02   1.0000000000000000e-02   1.0000000000000000e-02   1.0000000000000000e-02   1.000000